CsPbBr3                                 
           1
    16.350623    0.000000    0.000000
     0.000000   23.274647    0.000000
     0.000000    0.000000   16.259786
   Pb   Cs   Br
    32    32    96
Direct configuration=     1
   0.99544901  0.25189812  0.49996435
   0.23818731  0.00348189  0.25473571
   0.25759056  0.25410723  0.23495697
   0.50786470  0.50159359  0.99772904
   0.00022667  0.24860496  0.98013001
   0.24794042  0.00634671  0.76023011
   0.25640594  0.25146401  0.75911524
   0.50030612  0.50072573  0.49908685
   0.99805802  0.74445596  0.50327008
   0.25850004  0.50681070  0.24061316
   0.23411624  0.74071769  0.24275621
   0.50358735  0.01005453  0.01018708
   0.98655852  0.74913822  0.99811149
   0.24853038  0.50011790  0.73980701
   0.24498989  0.75532100  0.74734687
   0.50518310  0.99783149  0.51613023
   0.50271353  0.24805269  0.48948952
   0.74093545  0.99347775  0.25921728
   0.76790173  0.25758112  0.25018304
   0.00451588  0.48791812  0.99911331
   0.52099417  0.24646001  0.99156172
   0.73563840  0.99101122  0.75670296
   0.75094041  0.26025180  0.73559883
   0.99693325  0.50781408  0.48457973
   0.49079136  0.75447763  0.49275885
   0.76027883  0.49988521  0.23353669
   0.75307324  0.74459983  0.24798478
   0.00360529  0.99128829  0.00331147
   0.50025536  0.75211992  0.01476743
   0.76048658  0.49650273  0.73837786
   0.72892161  0.74071018  0.74769841
   0.00028076  0.01087092  0.51717148
   0.30986429  0.13079732  0.01690927
   0.46831468  0.38252179  0.26999485
   0.21611981  0.38540903  0.47341770
   0.05078050  0.12856359  0.23479773
   0.26317410  0.13886882  0.50429887
   0.45599073  0.38777963  0.74575348
   0.24844989  0.38953882  0.00811219
   0.01300133  0.12200977  0.77954533
   0.29186517  0.62480665  0.98654646
   0.45459788  0.87447598  0.25462475
   0.23022642  0.87956259  0.50835286
   0.03807719  0.62953833  0.22461695
   0.28772211  0.62500105  0.52342616
   0.44070016  0.87621167  0.77487554
   0.21282688  0.87213314  0.99534706
   0.05797597  0.62226803  0.75879182
   0.78309353  0.11878072  0.02069807
   0.96666474  0.37243892  0.27229738
   0.70056307  0.37412627  0.47703284
   0.54828129  0.11499520  0.24421807
   0.78564099  0.12599967  0.50954047
   0.98803569  0.38043026  0.76107756
   0.70737880  0.37091784  0.98998471
   0.53996035  0.13333862  0.72410428
   0.75445184  0.62717610  0.01018695
   0.95788323  0.88798937  0.26030019
   0.73801114  0.85719822  0.52460543
   0.52278598  0.62579152  0.24827648
   0.77756245  0.61247657  0.50240028
   0.96792991  0.86634643  0.74555549
   0.68381825  0.88215698  0.99209701
   0.53974459  0.62106053  0.74650486
   0.16548204  0.23663245  0.07484083
   0.09428683  0.48707416  0.33195679
   0.11946005  0.26011533  0.36246418
   0.34929387  0.48139603  0.39994146
   0.35160381  0.27190693  0.39422835
   0.40889770  0.00971591  0.16740464
   0.42211961  0.23153416  0.15528466
   0.15448590  0.01875658  0.08968635
   0.47166497  0.37986345  0.03642732
   0.28486937  0.12437068  0.24448309
   0.01345164  0.13341450  0.44727700
   0.25481503  0.37920584  0.23052447
   0.15214231  0.24116843  0.61417105
   0.12002310  0.48876872  0.86743589
   0.10520958  0.28223925  0.85353224
   0.38163324  0.50566465  0.85732908
   0.35825769  0.28402805  0.90267515
   0.39398675  0.03339194  0.65660478
   0.39097214  0.22972807  0.63698801
   0.14120893  0.04418785  0.61419171
   0.48499333  0.37147856  0.52632018
   0.23071178  0.12698984  0.80768962
   0.99290573  0.12050415  0.98899883
   0.24191781  0.36944092  0.68849805
   0.15989723  0.72402626  0.08150501
   0.10262390  0.99262422  0.36644859
   0.09560831  0.76344947  0.33809774
   0.34936884  0.99172920  0.42369441
   0.32918184  0.76761545  0.40770273
   0.41072260  0.51633451  0.15013140
   0.38831239  0.72212518  0.14468892
   0.16339899  0.52843889  0.09342794
   0.46692333  0.87645081  0.04095787
   0.24537960  0.61923650  0.30392499
   0.98240789  0.62638844  0.42832511
   0.26081661  0.87151947  0.20970249
   0.14793459  0.71567596  0.60072854
   0.07502213  0.97252180  0.84491496
   0.08697045  0.76279910  0.84769299
   0.33604223  0.99814301  0.90409578
   0.35404426  0.75652322  0.88566717
   0.38879744  0.52221884  0.63397985
   0.39830155  0.72471162  0.65057044
   0.14185262  0.53062939  0.57369320
   0.51164858  0.86429240  0.58186071
   0.27038857  0.62118973  0.76937666
   0.97663097  0.61448484  0.96782122
   0.22889618  0.88059921  0.71516988
   0.67033317  0.23597393  0.08539699
   0.60997474  0.48312619  0.35100771
   0.59823736  0.27234497  0.34475732
   0.83831876  0.46712768  0.38987656
   0.82712435  0.26365772  0.42014442
   0.88979964  0.00663354  0.15548238
   0.92497885  0.22326845  0.14979641
   0.65669794  0.00930351  0.09266021
   0.01395621  0.35890125  0.06150231
   0.76906564  0.12447951  0.26583142
   0.49745450  0.12380323  0.45179063
   0.75092299  0.37500171  0.20560750
   0.65171627  0.22835307  0.59590208
   0.61852530  0.45372637  0.84916161
   0.60600427  0.29053720  0.84167345
   0.85781999  0.45700917  0.90812760
   0.84201608  0.27230486  0.89022118
   0.88804629  0.02138606  0.65563107
   0.92019561  0.23031753  0.66671919
   0.65916001  0.99757974  0.58245156
   0.00443522  0.38555505  0.52333602
   0.75149017  0.12885096  0.78394044
   0.51683251  0.12665684  0.94780057
   0.76413916  0.38081825  0.68891517
   0.63508350  0.72715907  0.12367320
   0.59490388  0.97158721  0.35914267
   0.61117295  0.77739089  0.36706060
   0.83909193  0.98278201  0.40956670
   0.85463244  0.76236841  0.39631853
   0.92539525  0.52507485  0.15748039
   0.88235994  0.71433845  0.13750683
   0.64804695  0.51712057  0.10464083
   0.99534331  0.86507599  0.04424274
   0.74100779  0.61617529  0.29360225
   0.49746190  0.62199647  0.45993051
   0.74817522  0.86638617  0.22706485
   0.63388015  0.71428219  0.60149943
   0.56695073  0.97576913  0.84670011
   0.59174603  0.77819741  0.85966408
   0.83282683  0.98836195  0.91377014
   0.82541841  0.75696706  0.91045153
   0.91691807  0.53491690  0.66222976
   0.89377002  0.72392811  0.64818728
   0.65869863  0.50809745  0.59960430
   0.99672637  0.87370866  0.53482782
   0.74629860  0.62610903  0.79538256
   0.52773411  0.63110104  0.96843522
   0.74650370  0.86661624  0.75074716
Direct configuration=     2
   0.99573277  0.25188456  0.49997138
   0.23812845  0.00347208  0.25478161
   0.25883749  0.25486300  0.23522928
   0.50744941  0.50102112  0.99838775
   0.00068139  0.24806192  0.98128483
   0.24875223  0.00580051  0.76059409
   0.25619164  0.25063525  0.75823997
   0.50083899  0.50048626  0.49948277
   0.99794657  0.74443833  0.50263683
   0.25931164  0.50749123  0.24127546
   0.23412179  0.74066816  0.24332162
   0.50403118  0.01008267  0.01022052
   0.98666524  0.74918166  0.99794365
   0.24869793  0.50108688  0.73911078
   0.24403034  0.75407886  0.74604879
   0.50422539  0.99798751  0.51650582
   0.50267789  0.24806340  0.48945641
   0.74064978  0.99444628  0.25907994
   0.76732355  0.25832774  0.25034637
   0.00368084  0.48805203  0.99938112
   0.52063076  0.24712292  0.99056302
   0.73504516  0.99143370  0.75618079
   0.75274471  0.25975494  0.73693686
   0.99627006  0.50810346  0.48366752
   0.49113255  0.75448190  0.49240702
   0.76105264  0.50023993  0.23342883
   0.75206484  0.74536094  0.24856702
   0.00439155  0.99189090  0.00260133
   0.50037278  0.75233541  0.01523758
   0.76044758  0.49653790  0.73781069
   0.72960451  0.74046721  0.74739691
   0.00027085  0.01177507  0.51772109
   0.30896670  0.13078747  0.01733544
   0.46905785  0.38178587  0.27025108
   0.21553075  0.38570932  0.47173756
   0.05206252  0.12947257  0.23453671
   0.26246477  0.13821921  0.50566573
   0.45421375  0.38736091  0.74598090
   0.24919585  0.39022016  0.00733024
   0.01303157  0.12157240  0.77927690
   0.29214473  0.62464719  0.98790448
   0.45405777  0.87561342  0.25425648
   0.23089177  0.87917851  0.50737645
   0.03856162  0.62954156  0.22783213
   0.28799998  0.62431446  0.52332739
   0.44051922  0.87647940  0.77464972
   0.21350596  0.87199341  0.99637400
   0.05745852  0.62215757  0.75904464
   0.78321640  0.11941742  0.02045539
   0.96661459  0.37274062  0.27139412
   0.70030097  0.37477123  0.47672397
   0.54850874  0.11501758  0.24387068
   0.78731010  0.12589447  0.50923086
   0.98799652  0.38103033  0.76159593
   0.70570251  0.37109307  0.98941025
   0.54039529  0.13418375  0.72525212
   0.75394487  0.62635194  0.01128189
   0.95800032  0.88743909  0.26021696
   0.73729628  0.85718603  0.52392463
   0.52327250  0.62638368  0.24968473
   0.77834297  0.61229130  0.50247189
   0.96640409  0.86665840  0.74413535
   0.68314015  0.88206392  0.99310415
   0.54019163  0.61892887  0.74635693
   0.16620218  0.23576612  0.07398612
   0.09510300  0.48556556  0.33166762
   0.11894579  0.26049126  0.36371458
   0.35024188  0.48007404  0.40130216
   0.34899655  0.27182557  0.39633242
   0.40869258  0.01048424  0.16706364
   0.42248690  0.23248687  0.15437606
   0.15461666  0.01818649  0.08814226
   0.47315572  0.38095992  0.03579576
   0.28515290  0.12393084  0.24343789
   0.01303806  0.13251941  0.44675161
   0.25391921  0.37944682  0.22969547
   0.15174900  0.24082253  0.61276406
   0.11925889  0.48999269  0.86885291
   0.10541842  0.28057154  0.85505020
   0.38188912  0.50578608  0.85721200
   0.35807254  0.28398824  0.89977003
   0.39349691  0.03322821  0.65912939
   0.39248203  0.23012765  0.63659139
   0.14156547  0.04370710  0.61420640
   0.48520004  0.37125815  0.52462556
   0.23064396  0.12715346  0.80700658
   0.99221088  0.11917629  0.99004924
   0.24224489  0.37063091  0.68991874
   0.15909412  0.72388376  0.08117836
   0.10083127  0.99336379  0.36389357
   0.09643952  0.76286099  0.33885805
   0.34940551  0.99136154  0.42490840
   0.32968790  0.76732940  0.40643302
   0.41199054  0.51497083  0.15052233
   0.38882831  0.72112170  0.14393664
   0.16573909  0.52915517  0.09463823
   0.46716340  0.87611759  0.04047227
   0.24648862  0.62003489  0.30208042
   0.98220134  0.62718872  0.42584026
   0.25928716  0.87155913  0.20982124
   0.14777564  0.71502296  0.60137721
   0.07574391  0.97223941  0.84354109
   0.08720373  0.76206387  0.84684980
   0.33656800  0.99747782  0.90322871
   0.35529296  0.75675163  0.88564954
   0.38932608  0.52251317  0.63531537
   0.39923564  0.72486015  0.65328814
   0.14048755  0.53011059  0.57352452
   0.51099137  0.86237547  0.58326647
   0.27097072  0.62157822  0.76871731
   0.97584052  0.61394300  0.96772541
   0.22936665  0.88023069  0.71518443
   0.67173456  0.23553739  0.08575011
   0.60980505  0.48334309  0.35158475
   0.59816491  0.27311269  0.34446749
   0.83601007  0.46719298  0.39188033
   0.82724909  0.26476874  0.42026026
   0.88661049  0.00627856  0.15717242
   0.92425646  0.22257779  0.15064359
   0.65723854  0.01121839  0.09381140
   0.01317122  0.35830155  0.06287060
   0.77013938  0.12506501  0.26667921
   0.49657391  0.12544426  0.45265510
   0.74919997  0.37417687  0.20357254
   0.65108229  0.22923550  0.59641795
   0.62002484  0.45246668  0.84921728
   0.60615852  0.28951982  0.84138510
   0.85757402  0.45750766  0.90838369
   0.84250129  0.27251863  0.89045076
   0.88638387  0.02183535  0.65532596
   0.92062107  0.23099244  0.66644547
   0.65959319  0.99697542  0.58088885
   0.00566014  0.38555251  0.52611376
   0.75196582  0.12825077  0.78302715
   0.51658093  0.12676469  0.94836028
   0.76438076  0.37948809  0.68823077
   0.63245319  0.72572263  0.12277952
   0.59337732  0.97090798  0.35956603
   0.61207085  0.77830541  0.36495775
   0.84097030  0.98200832  0.40983742
   0.85348460  0.76158202  0.39540644
   0.92463913  0.52659061  0.15809863
   0.88281085  0.71359722  0.13637861
   0.64949445  0.51685250  0.10318917
   0.99563770  0.86411660  0.04444557
   0.73976057  0.61575853  0.29479822
   0.49506856  0.62127878  0.46063276
   0.74931866  0.86560618  0.22517445
   0.63370494  0.71489143  0.60030469
   0.56903862  0.97533446  0.84738301
   0.59188497  0.77732161  0.85934844
   0.83161885  0.98832968  0.91396791
   0.82628796  0.75786785  0.91157747
   0.91810563  0.53485522  0.66043040
   0.89384094  0.72453812  0.64936154
   0.65817663  0.50887565  0.59682741
   0.99774081  0.87504254  0.53515281
   0.74392465  0.62547616  0.79434042
   0.52678399  0.63170815  0.97011131
   0.74550572  0.86666072  0.75013930
Direct configuration=     3
   0.99611304  0.25193552  0.50009368
   0.23825501  0.00339474  0.25480623
   0.26008163  0.25557918  0.23551732
   0.50706518  0.50042412  0.99893514
   0.00106568  0.24753442  0.98265388
   0.24943385  0.00531311  0.76081152
   0.25597664  0.24981352  0.75728550
   0.50136997  0.50019371  0.49974977
   0.99783578  0.74441750  0.50196732
   0.26003152  0.50810488  0.24201586
   0.23428553  0.74068739  0.24387354
   0.50432833  0.00998922  0.01024042
   0.98673412  0.74905500  0.99770492
   0.24878672  0.50197808  0.73832877
   0.24311965  0.75278855  0.74472423
   0.50307278  0.99812496  0.51676182
   0.50255976  0.24807418  0.48946388
   0.74045586  0.99543198  0.25903810
   0.76671323  0.25891189  0.25044734
   0.00273060  0.48822153  0.99981567
   0.52016764  0.24790330  0.98961983
   0.73446698  0.99193423  0.75572024
   0.75460877  0.25916864  0.73834733
   0.99553005  0.50836141  0.48273176
   0.49143811  0.75444774  0.49214132
   0.76194307  0.50059922  0.23350761
   0.75107817  0.74604947  0.24928288
   0.00498998  0.99251917  0.00189924
   0.50039891  0.75256238  0.01555615
   0.76046718  0.49661427  0.73742309
   0.73036281  0.74028487  0.74715237
   0.00023664  0.01263011  0.51820480
   0.30797202  0.13078111  0.01777709
   0.46980805  0.38103696  0.27046485
   0.21488302  0.38591369  0.47012712
   0.05337560  0.13031833  0.23424085
   0.26185923  0.13758062  0.50691705
   0.45250660  0.38685226  0.74616275
   0.24987048  0.39088527  0.00655237
   0.01305666  0.12111667  0.77890312
   0.29247134  0.62448999  0.98924669
   0.45374048  0.87669877  0.25403146
   0.23147405  0.87880336  0.50627686
   0.03916563  0.62960809  0.23097616
   0.28834517  0.62368730  0.52306678
   0.44030172  0.87667592  0.77450038
   0.21425726  0.87182874  0.99736132
   0.05679811  0.62207113  0.75929895
   0.78337676  0.12007574  0.02016756
   0.96661565  0.37302409  0.27051281
   0.69998912  0.37541823  0.47649937
   0.54869160  0.11509950  0.24354676
   0.78895154  0.12574390  0.50890104
   0.98789623  0.38165984  0.76196790
   0.70415380  0.37123830  0.98900233
   0.54080517  0.13502477  0.72643394
   0.75355662  0.62554925  0.01229921
   0.95822774  0.88681780  0.26026698
   0.73656958  0.85718112  0.52318059
   0.52378345  0.62694313  0.25109450
   0.77913715  0.61216467  0.50257472
   0.96482697  0.86693518  0.74277060
   0.68264714  0.88187341  0.99405728
   0.54042226  0.61678303  0.74620084
   0.16696938  0.23487440  0.07326452
   0.09592639  0.48404609  0.33143916
   0.11836188  0.26090305  0.36473809
   0.35139546  0.47889875  0.40260881
   0.34633651  0.27171468  0.39835398
   0.40853114  0.01130879  0.16663908
   0.42293747  0.23345685  0.15336286
   0.15497404  0.01762847  0.08679546
   0.47480269  0.38195781  0.03524508
   0.28519674  0.12354534  0.24262024
   0.01243733  0.13147077  0.44635021
   0.25297914  0.37959256  0.22871930
   0.15100668  0.24041121  0.61107300
   0.11871145  0.49112291  0.86993403
   0.10590764  0.27897434  0.85625297
   0.38211827  0.50581121  0.85742657
   0.35806355  0.28387554  0.89694948
   0.39304031  0.03303599  0.66169017
   0.39403255  0.23047210  0.63640097
   0.14180313  0.04316604  0.61419985
   0.48546294  0.37118073  0.52306102
   0.23054847  0.12734141  0.80645202
   0.99163998  0.11770359  0.99106443
   0.24263404  0.37203844  0.69149537
   0.15809990  0.72376137  0.08079337
   0.09894060  0.99402873  0.36125963
   0.09680931  0.76243364  0.33981893
   0.34905512  0.99091693  0.42573726
   0.33032200  0.76706991  0.40511227
   0.41336796  0.51370556  0.15080118
   0.38934093  0.72003828  0.14335168
   0.16797871  0.52985266  0.09566251
   0.46747335  0.87598303  0.03988747
   0.24762086  0.62109103  0.30042433
   0.98192406  0.62810199  0.42355971
   0.25732705  0.87166731  0.20993528
   0.14745975  0.71448020  0.60197488
   0.07665519  0.97200206  0.84212656
   0.08755212  0.76138187  0.84590301
   0.33742176  0.99664434  0.90296688
   0.35649028  0.75705970  0.88588931
   0.39008592  0.52275687  0.63676491
   0.40013580  0.72507357  0.65600512
   0.13940287  0.52952016  0.57373232
   0.51037868  0.86069624  0.58433789
   0.27142362  0.62220215  0.76812295
   0.97509743  0.61338566  0.96750869
   0.22985612  0.87977308  0.71529855
   0.67303970  0.23509901  0.08622534
   0.60952420  0.48356191  0.35205131
   0.59839711  0.27383220  0.34381226
   0.83394197  0.46732236  0.39402053
   0.82763019  0.26588278  0.42038035
   0.88371543  0.00600266  0.15871148
   0.92311305  0.22208955  0.15171033
   0.65768711  0.01319909  0.09500764
   0.01246714  0.35799476  0.06415227
   0.77102557  0.12559811  0.26766021
   0.49573451  0.12681091  0.45360574
   0.74753398  0.37341617  0.20144960
   0.65040494  0.23008164  0.59672251
   0.62129736  0.45156553  0.84916161
   0.60611652  0.28836962  0.84098949
   0.85731402  0.45808287  0.90847441
   0.84317281  0.27275762  0.89091312
   0.88474158  0.02228009  0.65514883
   0.92095545  0.23168604  0.66602912
   0.66070095  0.99653503  0.57977798
   0.00682537  0.38531252  0.52897190
   0.75234024  0.12758871  0.78213355
   0.51637382  0.12691992  0.94879850
   0.76481167  0.37809799  0.68733350
   0.62985621  0.72431400  0.12177877
   0.59167060  0.97023024  0.35998931
   0.61283214  0.77924798  0.36279343
   0.84291307  0.98121636  0.41011680
   0.85239359  0.76088995  0.39468450
   0.92350387  0.52783640  0.15868374
   0.88336697  0.71287676  0.13539806
   0.65065900  0.51654788  0.10139503
   0.99599425  0.86347659  0.04481750
   0.73845330  0.61552014  0.29594149
   0.49271949  0.62073285  0.46130659
   0.75042704  0.86513056  0.22302889
   0.63364495  0.71546273  0.59901039
   0.57147009  0.97501869  0.84797514
   0.59204531  0.77641250  0.85883445
   0.83041259  0.98821342  0.91405004
   0.82723263  0.75887116  0.91272189
   0.91915799  0.53468888  0.65851301
   0.89389391  0.72516369  0.65054238
   0.65755660  0.50971733  0.59407030
   0.99886325  0.87645573  0.53539330
   0.74161357  0.62448274  0.79342015
   0.52577333  0.63211179  0.97166129
   0.74463081  0.86697014  0.74936828




  
  
   
 
 
 
 
  